
# Model phase or structure data originate from a copyrighted database of the International Centre for Diffraction Data.
data_Brookite

_audit_creation_date              '7/14/2016 2:38:09 PM'
_audit_creation_method            'Generated by HighScore Plus 3.0.5'

_database_code_ICSD                36411

_chemical_name_systematic         
;
Titanium Oxide
;

_chemical_name_mineral            
;
Brookite
;

_chemical_formula_structural      
;
Ti O2
;

_chemical_formula_sum             
;
O2 Ti1
;

_database_code_PDF                '00-029-1360'
_publ_section_title               
;
Polyhedral thermal expansion in the Ti O2 polymorphs. Refinement of the crystal structures of rutile and brookite at high temperature
;

_publ_section_comment             
;
Original ICSD space group: PBCA. Stable from 300 to 800 K (2nd
ref., Tomaszewski), below I41/amd, above P42/mnm. X-ray diffraction
from single crystal. Structure type : Brookite. Temperature
factors available. Temperature in Kelvin: 898. The structure
has been assigned a PDF number (experimental powder diffraction
data): 29-1360. The structure has been assigned a PDF number
(calculated powder diffraction data): 01-076-1937. Compound
with mineral name: Brookite. Structure type: Brookite. Recording
date: 1/1/1980. Modification date: 4/1/2006. Mineral origin:
Binnatal, Switzerland. ANX formula: AX2. Z: 8. Calculated density:
4.07. R value: 0.05. Pearson code: oP24. Wyckoff code: c3. PDF
code: 00-029-1360Structure TIDY: TRANS  c,a,b     origin  1/2 0 0
;

_publ_author_name                 
;
Lager, G.A.;Meagher, E.P.
;

_journal_name_full                
;
Golden Book of Phase Transitions, Wroclaw
;

_journal_coden_ASTM               'GBOPT5'
_journal_volume                   1
_journal_year                     2002
_journal_page_first               1
_journal_page_last                123

loop_
 _symmetry_equiv_pos_as_xyz
 'X, Y, Z'
 '-X+1/2, -Y, Z+1/2'
 'X+1/2, -Y+1/2, -Z'
 '-X, Y+1/2, -Z+1/2'
 '-X, -Y, -Z'
 'X+1/2, Y, -Z+1/2'
 '-X+1/2, Y+1/2, Z'
 'X, -Y+1/2, Z+1/2'

_xact_pref_orient_vector_h        0.00000000
_xact_pref_orient_vector_k        0.00000000
_xact_pref_orient_vector_l        1.00000000
_xact_pref_orient_param           1.000000
_xact_scale_factor                0.0000130(5)
_xact_cagliotti_U                 10.000000
_xact_cagliotti_V                 0.000000
_xact_cagliotti_W                 6.000000
_xact_shape_param_1               1.1(1)
_xact_shape_param_2               -0.005(2)
_xact_shape_param_3               0.000000
_xact_asym_param_1                0.000000
_xact_asym_param_2                0.000000
_cell_length_a                    5.25(2)
_cell_length_b                    9.24(3)
_cell_length_c                    5.45(1)
_cell_angle_alpha                 90
_cell_angle_beta                  90
_cell_angle_gamma                 90

_symmetry_space_group_name_H-M    'P b c a'
_symmetry_Int_Tables_number       61


loop_
 _atom_site_label
 _atom_site_type_symbol
 _atom_site_fract_x
 _atom_site_fract_y
 _atom_site_fract_z
 _atom_site_U_iso_or_equiv
 _atom_site_thermal_displace_type
 _atom_site_occupancy
 _atom_site_symmetry_multiplicity
 _atom_site_Wyckoff_symbol
 _atom_site_calc_flag
O1 O 0.036600 0.232200 0.111700 0.006333 Uiso 1.000000 8 c d
O2 O 0.183100 0.009800 0.351600 0.006333 Uiso 1.000000 8 c d
TI1 Ti 0.362800 0.129000 0.099900 0.006333 Uiso 1.000000 8 c d

loop_
 _atom_site_aniso_label
 _atom_site_aniso_U_11
 _atom_site_aniso_U_22
 _atom_site_aniso_U_33
 _atom_site_aniso_U_23
 _atom_site_aniso_U_13
 _atom_site_aniso_U_12
O1 0.017385 0.023754 0.001397 0.001490 0.002026 0.006038 
O2 0.015078 0.021844 0.013929 -0.002192 0.000854 0.000000 
TI1 0.017651 0.016758 0.012505 0.000129 0.000098 0.000208 

_refine_ls_R_factor_all           0.01083426

# Model phase or structure data originate from a copyrighted database of the International Centre for Diffraction Data.
data_Anatase

_audit_creation_date              '7/14/2016 2:38:09 PM'
_audit_creation_method            'Generated by HighScore Plus 3.0.5'

_database_code_ICSD                93098

_chemical_name_systematic         
;
Titanium Oxide
;

_chemical_name_mineral            
;
Anatase
;

_chemical_formula_structural      
;
Ti O2
;

_chemical_formula_sum             
;
O2 Ti1
;

_database_code_PDF                '00-021-1272'
_publ_section_title               
;
Rietveld refinements on laboratory energy dispersive X-ray diffraction (EDXD) data
;

_publ_section_comment             
;
Original ICSD space group: I41/AMDZ. Stable below 300 K (2nd
ref., Tomaszewski), 300-800 K: Pbca. From rutile/anatase mixture.
X-ray diffraction (powder). Structure type : TiO2(tI12). Temperature
factors available. Rietveld profile refinement applied. The
structure has been assigned a PDF number (experimental powder
diffraction data): 21-1272. The structure has been assigned
a PDF number (calculated powder diffraction data): 01-070-7348.
Compound with mineral name: Anatase. Structure type: TiO2(tI12).
Recording date: 4/1/2003. Modification date: 4/1/2006. ANX formula:
AX2. Z: 4. Calculated density: 3.9. R value: 0.032. Pearson
code: tI12. Wyckoff code: e a. PDF code: 00-021-1272Structure
TIDY: TRANS  Origin  0 0 1/2
;

_publ_author_name                 
;
Caminiti, R.;Ballirano, P.
;

_journal_name_full                
;
Golden Book of Phase Transitions, Wroclaw
;

_journal_coden_ASTM               'GBOPT5'
_journal_volume                   1
_journal_year                     2002
_journal_page_first               1
_journal_page_last                123

loop_
 _symmetry_equiv_pos_as_xyz
 'X, Y, Z'
 '-Y+1/4, X-1/4, Z+1/4'
 '-X, -Y+1/2, Z'
 'Y+1/4, -X+1/4, Z-1/4'
 'X, -Y, -Z'
 '-X, Y+1/2, -Z'
 'Y+1/4, X-1/4, -Z+1/4'
 '-Y+1/4, -X+1/4, -Z-1/4'
 '-X, -Y, -Z'
 'Y+1/4, -X-1/4, -Z+1/4'
 'X, Y+1/2, -Z'
 '-Y+1/4, X+1/4, -Z-1/4'
 '-X, Y, Z'
 'X, -Y+1/2, Z'
 '-Y+1/4, -X-1/4, Z+1/4'
 'Y+1/4, X+1/4, Z-1/4'
 'X+1/2, Y+1/2, Z+1/2'
 '-Y-1/4, X, Z-1/4'
 '-X+1/2, -Y, Z+1/2'
 'Y-1/4, -X-1/4, Z'
 'X+1/2, -Y+1/2, -Z+1/2'
 '-X+1/2, Y, -Z+1/2'
 'Y-1/4, X, -Z-1/4'
 '-Y-1/4, -X-1/4, -Z'
 '-X+1/2, -Y+1/2, -Z+1/2'
 'Y-1/4, -X, -Z-1/4'
 'X+1/2, Y, -Z+1/2'
 '-Y-1/4, X-1/4, -Z'
 '-X+1/2, Y+1/2, Z+1/2'
 'X+1/2, -Y, Z+1/2'
 '-Y-1/4, -X, Z-1/4'
 'Y-1/4, X-1/4, Z'

_xact_pref_orient_vector_h        0.00000000
_xact_pref_orient_vector_k        0.00000000
_xact_pref_orient_vector_l        1.00000000
_xact_pref_orient_param           1.000000
_xact_scale_factor                0.0000336(8)
_xact_cagliotti_U                 1.7(7)
_xact_cagliotti_V                 0.000000
_xact_cagliotti_W                 1.7(1)
_xact_shape_param_1               1.10(8)
_xact_shape_param_2               -0.008(2)
_xact_shape_param_3               0.000000
_xact_asym_param_1                0.000000
_xact_asym_param_2                0.000000
_cell_length_a                    3.815(2)
_cell_length_b                    3.815(2)
_cell_length_c                    9.522(5)
_cell_angle_alpha                 90
_cell_angle_beta                  90
_cell_angle_gamma                 90

_symmetry_space_group_name_H-M    'I 41/a m d'
_symmetry_Int_Tables_number       141


loop_
 _atom_site_label
 _atom_site_type_symbol
 _atom_site_fract_x
 _atom_site_fract_y
 _atom_site_fract_z
 _atom_site_U_iso_or_equiv
 _atom_site_thermal_displace_type
 _atom_site_occupancy
 _atom_site_symmetry_multiplicity
 _atom_site_Wyckoff_symbol
 _atom_site_calc_flag
O1 O 0.000000 0.250000 0.166100 0.008866 Uiso 1.000000 8 e d
TI1 Ti 0.000000 0.250000 0.375000 0.006333 Uiso 1.000000 4 b d

loop_
 _atom_site_aniso_label
 _atom_site_aniso_U_11
 _atom_site_aniso_U_22
 _atom_site_aniso_U_33
 _atom_site_aniso_U_23
 _atom_site_aniso_U_13
 _atom_site_aniso_U_12
O1 0.000000 0.000000 0.000000 0.000000 0.000000 0.000000 
TI1 0.000000 0.000000 0.000000 0.000000 0.000000 0.000000 

_refine_ls_R_factor_all           0.02689897

# Model phase or structure data originate from a copyrighted database of the International Centre for Diffraction Data.
data_Rutile

_audit_creation_date              '7/14/2016 2:38:09 PM'
_audit_creation_method            'Generated by HighScore Plus 3.0.5'

_database_code_ICSD                 9161

_chemical_name_systematic         
;
Titanium Oxide
;

_chemical_name_mineral            
;
Rutile
;

_chemical_formula_structural      
;
Ti O2
;

_chemical_formula_sum             
;
O2 Ti1
;

_database_code_PDF                '00-016-0934'
_publ_section_title               
;
Rutile-type compounds. VI. Si O2, Ge O2 and a comparison with other rutile-type structures
;

_publ_section_comment             
;
Original ICSD space group: P42/MNM. Stable from 800 to 1800 K
(4th ref., Tomaszewski), 300-800 K: Pbca. X-ray diffraction
from single crystal. Structure type : TiO2(tP6). Temperature
factors available. New refinement based on previously measured
intensities. The structure has been assigned a PDF number (experimental
powder diffraction data): 16-934. Compound with mineral name:
Rutile. Structure type: TiO2(tP6). Recording date: 1/1/1980.
Modification date: 8/1/2007. Mineral origin: synthetic. ANX
formula: AX2. Z: 2. Authors density: 4.26. Calculated density:
4.25. R value: 0.056. Pearson code: tP6. Wyckoff code: f a.
PDF code: 00-016-0934
;

_publ_author_name                 
;
Khan, A.A.;Baur, W.H.
;

_journal_name_full                
;
Golden Book of Phase Transitions, Wroclaw
;

_journal_coden_ASTM               'GBOPT5'
_journal_volume                   1
_journal_year                     2002
_journal_page_first               1
_journal_page_last                123

loop_
 _symmetry_equiv_pos_as_xyz
 'X, Y, Z'
 '-Y+1/2, X+1/2, Z+1/2'
 '-X, -Y, Z'
 'Y+1/2, -X+1/2, Z+1/2'
 'X+1/2, -Y+1/2, -Z+1/2'
 '-X+1/2, Y+1/2, -Z+1/2'
 'Y, X, -Z'
 '-Y, -X, -Z'
 '-X, -Y, -Z'
 'Y+1/2, -X+1/2, -Z+1/2'
 'X, Y, -Z'
 '-Y+1/2, X+1/2, -Z+1/2'
 '-X+1/2, Y+1/2, Z+1/2'
 'X+1/2, -Y+1/2, Z+1/2'
 '-Y, -X, Z'
 'Y, X, Z'

_xact_pref_orient_vector_h        0.00000000
_xact_pref_orient_vector_k        0.00000000
_xact_pref_orient_vector_l        1.00000000
_xact_pref_orient_param           1.221280
_xact_scale_factor                0.0000024(3)
_xact_cagliotti_U                 0.000000
_xact_cagliotti_V                 0.000000
_xact_cagliotti_W                 0.010000
_xact_shape_param_1               0.600000
_xact_shape_param_2               0.000000
_xact_shape_param_3               0.000000
_xact_asym_param_1                0.000000
_xact_asym_param_2                0.000000
_cell_length_a                    4.591(2)
_cell_length_b                    4.591(2)
_cell_length_c                    2.978(3)
_cell_angle_alpha                 90
_cell_angle_beta                  90
_cell_angle_gamma                 90

_symmetry_space_group_name_H-M    'P 42/m n m'
_symmetry_Int_Tables_number       136


loop_
 _atom_site_label
 _atom_site_type_symbol
 _atom_site_fract_x
 _atom_site_fract_y
 _atom_site_fract_z
 _atom_site_U_iso_or_equiv
 _atom_site_thermal_displace_type
 _atom_site_occupancy
 _atom_site_symmetry_multiplicity
 _atom_site_Wyckoff_symbol
 _atom_site_calc_flag
O1 O 0.305700 0.305700 0.000000 0.006333 Uiso 1.000000 4 f d
TI1 Ti 0.000000 0.000000 0.000000 0.006333 Uiso 1.000000 2 a d

loop_
 _atom_site_aniso_label
 _atom_site_aniso_U_11
 _atom_site_aniso_U_22
 _atom_site_aniso_U_33
 _atom_site_aniso_U_23
 _atom_site_aniso_U_13
 _atom_site_aniso_U_12
O1 0.008010 0.008010 0.007908 0.000000 0.000000 0.000000 
TI1 0.007262 0.007262 0.007863 0.000000 0.000000 0.000000 

_refine_ls_R_factor_all           0.02088881
